Title: * .step'ed log file data
Date: N/A
Plotname: unknown
Flags: real forward
No. Variables: 4
No. Points: 500
Offset:   0.0000000000000000e+000
Command: Linear Technology Corporation LTspice XVII
Variables:
	0	run	step
	1	period	unknown
	2	frequency	unknown
	3	cap	unknown
Values:
0		1.000000000000000e+000
	8.963490000000000e-001
	1.115640000000000e+000
	9.002500000000001e-006
1		2.000000000000000e+000
	9.657000000000000e-001
	1.035520000000000e+000
	9.700580000000000e-006
2		3.000000000000000e+000
	1.040120000000000e+000
	9.614310000000000e-001
	1.042100000000000e-005
3		4.000000000000000e+000
	9.246090000000000e-001
	1.081540000000000e+000
	9.294630000000000e-006
4		5.000000000000000e+000
	9.024270000000000e-001
	1.108120000000000e+000
	9.017820000000000e-006
5		6.000000000000000e+000
	9.281830000000000e-001
	1.077370000000000e+000
	9.332470000000001e-006
6		7.000000000000000e+000
	1.070770000000000e+000
	9.339090000000000e-001
	1.056660000000000e-005
7		8.000000000000000e+000
	1.100440000000000e+000
	9.087310000000000e-001
	1.091180000000000e-005
8		9.000000000000000e+000
	1.077960000000000e+000
	9.276800000000000e-001
	1.072450000000000e-005
9		1.000000000000000e+001
	1.030160000000000e+000
	9.707190000000000e-001
	1.022300000000000e-005
10		1.100000000000000e+001
	9.707910000000000e-001
	1.030090000000000e+000
	9.751730000000001e-006
11		1.200000000000000e+001
	9.572620000000000e-001
	1.044650000000000e+000
	9.551770000000000e-006
12		1.300000000000000e+001
	9.966740000000000e-001
	1.003340000000000e+000
	9.969880000000000e-006
13		1.400000000000000e+001
	1.053780000000000e+000
	9.489600000000000e-001
	1.048890000000000e-005
14		1.500000000000000e+001
	1.013900000000000e+000
	9.862930000000000e-001
	1.014480000000000e-005
15		1.600000000000000e+001
	1.005010000000000e+000
	9.950130000000000e-001
	1.003420000000000e-005
16		1.700000000000000e+001
	9.899540000000000e-001
	1.010150000000000e+000
	9.983790000000000e-006
17		1.800000000000000e+001
	9.342090000000000e-001
	1.070420000000000e+000
	9.283149999999999e-006
18		1.900000000000000e+001
	1.093240000000000e+000
	9.147080000000000e-001
	1.093320000000000e-005
19		2.000000000000000e+001
	9.325260000000000e-001
	1.072360000000000e+000
	9.382700000000001e-006
20		2.100000000000000e+001
	1.047080000000000e+000
	9.550340000000001e-001
	1.046400000000000e-005
21		2.200000000000000e+001
	1.050690000000000e+000
	9.517520000000000e-001
	1.044380000000000e-005
22		2.300000000000000e+001
	1.019520000000000e+000
	9.808500000000000e-001
	1.003400000000000e-005
23		2.400000000000000e+001
	1.017860000000000e+000
	9.824550000000000e-001
	1.009910000000000e-005
24		2.500000000000000e+001
	1.001330000000000e+000
	9.986710000000000e-001
	9.912200000000000e-006
25		2.600000000000000e+001
	9.452710000000000e-001
	1.057900000000000e+000
	9.391980000000000e-006
26		2.700000000000000e+001
	9.164040000000000e-001
	1.091220000000000e+000
	9.054930000000001e-006
27		2.800000000000000e+001
	1.083550000000000e+000
	9.228950000000000e-001
	1.068610000000000e-005
28		2.900000000000000e+001
	9.127620000000000e-001
	1.095580000000000e+000
	9.219860000000000e-006
29		3.000000000000000e+001
	9.309490000000000e-001
	1.074170000000000e+000
	9.280530000000001e-006
30		3.100000000000000e+001
	9.569230000000000e-001
	1.045020000000000e+000
	9.505450000000001e-006
31		3.200000000000000e+001
	9.397500000000000e-001
	1.064110000000000e+000
	9.421159999999999e-006
32		3.300000000000000e+001
	1.058070000000000e+000
	9.451180000000000e-001
	1.050440000000000e-005
33		3.400000000000000e+001
	1.043340000000000e+000
	9.584560000000000e-001
	1.039240000000000e-005
34		3.500000000000000e+001
	1.020540000000000e+000
	9.798750000000001e-001
	1.025740000000000e-005
35		3.600000000000000e+001
	9.272830000000000e-001
	1.078420000000000e+000
	9.379890000000001e-006
36		3.700000000000000e+001
	9.267040000000000e-001
	1.079090000000000e+000
	9.195010000000000e-006
37		3.800000000000000e+001
	1.069230000000000e+000
	9.352570000000000e-001
	1.078920000000000e-005
38		3.900000000000000e+001
	1.029020000000000e+000
	9.718030000000000e-001
	1.025610000000000e-005
39		4.000000000000000e+001
	1.072880000000000e+000
	9.320700000000000e-001
	1.070960000000000e-005
40		4.100000000000000e+001
	9.288350000000000e-001
	1.076620000000000e+000
	9.368540000000000e-006
41		4.200000000000000e+001
	1.024030000000000e+000
	9.765300000000000e-001
	1.020940000000000e-005
42		4.300000000000000e+001
	1.053790000000000e+000
	9.489560000000000e-001
	1.048150000000000e-005
43		4.400000000000000e+001
	1.024430000000000e+000
	9.761490000000000e-001
	1.015210000000000e-005
44		4.500000000000000e+001
	1.031090000000000e+000
	9.698510000000000e-001
	1.033560000000000e-005
45		4.600000000000000e+001
	9.173260000000000e-001
	1.090120000000000e+000
	9.217109999999999e-006
46		4.700000000000000e+001
	9.068190000000000e-001
	1.102760000000000e+000
	9.158699999999999e-006
47		4.800000000000000e+001
	9.736390000000000e-001
	1.027070000000000e+000
	9.817960000000000e-006
48		4.900000000000000e+001
	1.048980000000000e+000
	9.533090000000000e-001
	1.047600000000000e-005
49		5.000000000000000e+001
	9.726330000000000e-001
	1.028140000000000e+000
	9.600120000000000e-006
50		5.100000000000000e+001
	1.019910000000000e+000
	9.804760000000000e-001
	1.021930000000000e-005
51		5.200000000000000e+001
	9.300040000000001e-001
	1.075260000000000e+000
	9.209600000000001e-006
52		5.300000000000000e+001
	1.031760000000000e+000
	9.692130000000000e-001
	1.032560000000000e-005
53		5.400000000000000e+001
	1.004460000000000e+000
	9.955600000000000e-001
	1.001850000000000e-005
54		5.500000000000000e+001
	9.024680000000001e-001
	1.108070000000000e+000
	9.011779999999999e-006
55		5.600000000000000e+001
	1.045570000000000e+000
	9.564180000000000e-001
	1.049470000000000e-005
56		5.700000000000000e+001
	1.083980000000000e+000
	9.225300000000000e-001
	1.091140000000000e-005
57		5.800000000000000e+001
	1.080880000000000e+000
	9.251740000000001e-001
	1.090340000000000e-005
58		5.900000000000000e+001
	9.344190000000000e-001
	1.070180000000000e+000
	9.263250000000000e-006
59		6.000000000000000e+001
	8.955460000000000e-001
	1.116640000000000e+000
	9.029359999999999e-006
60		6.100000000000000e+001
	9.331140000000000e-001
	1.071680000000000e+000
	9.337840000000000e-006
61		6.200000000000000e+001
	1.068100000000000e+000
	9.362380000000000e-001
	1.060480000000000e-005
62		6.300000000000000e+001
	9.262030000000000e-001
	1.079680000000000e+000
	9.289620000000000e-006
63		6.400000000000000e+001
	9.172200000000000e-001
	1.090250000000000e+000
	9.132329999999999e-006
64		6.500000000000000e+001
	9.632270000000001e-001
	1.038180000000000e+000
	9.622700000000000e-006
65		6.600000000000000e+001
	1.078910000000000e+000
	9.268580000000000e-001
	1.079050000000000e-005
66		6.700000000000000e+001
	9.510630000000000e-001
	1.051460000000000e+000
	9.456980000000000e-006
67		6.800000000000000e+001
	9.020890000000000e-001
	1.108540000000000e+000
	9.107610000000000e-006
68		6.900000000000000e+001
	1.089110000000000e+000
	9.181810000000000e-001
	1.078310000000000e-005
69		7.000000000000000e+001
	8.983370000000001e-001
	1.113170000000000e+000
	9.094180000000000e-006
70		7.100000000000000e+001
	1.091330000000000e+000
	9.163110000000000e-001
	1.089230000000000e-005
71		7.200000000000000e+001
	9.405820000000000e-001
	1.063170000000000e+000
	9.518330000000000e-006
72		7.300000000000000e+001
	1.009060000000000e+000
	9.910190000000000e-001
	1.017110000000000e-005
73		7.400000000000000e+001
	9.029610000000000e-001
	1.107470000000000e+000
	9.014340000000001e-006
74		7.500000000000000e+001
	9.337960000000000e-001
	1.070900000000000e+000
	9.444649999999999e-006
75		7.600000000000000e+001
	1.072000000000000e+000
	9.328340000000001e-001
	1.071020000000000e-005
76		7.700000000000000e+001
	1.006840000000000e+000
	9.932090000000000e-001
	1.006030000000000e-005
77		7.800000000000000e+001
	8.997270000000001e-001
	1.111450000000000e+000
	9.062140000000000e-006
78		7.900000000000000e+001
	1.100820000000000e+000
	9.084170000000000e-001
	1.089580000000000e-005
79		8.000000000000000e+001
	9.527000000000000e-001
	1.049650000000000e+000
	9.584490000000001e-006
80		8.100000000000000e+001
	9.648630000000000e-001
	1.036420000000000e+000
	9.481090000000001e-006
81		8.200000000000000e+001
	9.146100000000000e-001
	1.093360000000000e+000
	9.160220000000001e-006
82		8.300000000000000e+001
	9.279380000000000e-001
	1.077660000000000e+000
	9.421279999999999e-006
83		8.400000000000000e+001
	9.603460000000000e-001
	1.041290000000000e+000
	9.622270000000001e-006
84		8.500000000000000e+001
	9.228720000000000e-001
	1.083570000000000e+000
	9.307020000000001e-006
85		8.600000000000000e+001
	1.043310000000000e+000
	9.584880000000000e-001
	1.029110000000000e-005
86		8.700000000000000e+001
	9.413230000000000e-001
	1.062330000000000e+000
	9.301520000000000e-006
87		8.800000000000000e+001
	1.013050000000000e+000
	9.871230000000000e-001
	1.015710000000000e-005
88		8.900000000000000e+001
	1.057310000000000e+000
	9.457950000000001e-001
	1.059050000000000e-005
89		9.000000000000000e+001
	9.411210000000000e-001
	1.062560000000000e+000
	9.395340000000001e-006
90		9.100000000000000e+001
	9.860200000000000e-001
	1.014180000000000e+000
	9.882599999999999e-006
91		9.200000000000000e+001
	1.074760000000000e+000
	9.304430000000000e-001
	1.089890000000000e-005
92		9.300000000000000e+001
	1.003540000000000e+000
	9.964770000000000e-001
	1.014890000000000e-005
93		9.400000000000000e+001
	9.559770000000000e-001
	1.046050000000000e+000
	9.520400000000000e-006
94		9.500000000000000e+001
	9.819550000000000e-001
	1.018380000000000e+000
	9.787130000000000e-006
95		9.600000000000000e+001
	9.758100000000000e-001
	1.024790000000000e+000
	9.707110000000000e-006
96		9.700000000000000e+001
	9.318950000000000e-001
	1.073080000000000e+000
	9.400340000000000e-006
97		9.800000000000000e+001
	9.255820000000000e-001
	1.080400000000000e+000
	9.218760000000000e-006
98		9.900000000000000e+001
	1.028280000000000e+000
	9.724980000000000e-001
	1.037530000000000e-005
99		1.000000000000000e+002
	9.538360000000000e-001
	1.048400000000000e+000
	9.614460000000000e-006
100		1.010000000000000e+002
	1.046140000000000e+000
	9.558960000000000e-001
	1.044990000000000e-005
101		1.020000000000000e+002
	9.100910000000000e-001
	1.098790000000000e+000
	9.196599999999999e-006
102		1.030000000000000e+002
	1.041970000000000e+000
	9.597190000000000e-001
	1.045570000000000e-005
103		1.040000000000000e+002
	9.127280000000000e-001
	1.095620000000000e+000
	9.099920000000001e-006
104		1.050000000000000e+002
	9.473730000000000e-001
	1.055550000000000e+000
	9.424940000000000e-006
105		1.060000000000000e+002
	1.032130000000000e+000
	9.688710000000000e-001
	1.021190000000000e-005
106		1.070000000000000e+002
	1.031880000000000e+000
	9.691050000000000e-001
	1.024660000000000e-005
107		1.080000000000000e+002
	9.515720000000000e-001
	1.050890000000000e+000
	9.612810000000000e-006
108		1.090000000000000e+002
	9.010670000000000e-001
	1.109800000000000e+000
	9.062070000000001e-006
109		1.100000000000000e+002
	1.028650000000000e+000
	9.721500000000000e-001
	1.022320000000000e-005
110		1.110000000000000e+002
	1.059540000000000e+000
	9.438030000000000e-001
	1.058640000000000e-005
111		1.120000000000000e+002
	1.030260000000000e+000
	9.706320000000001e-001
	1.034550000000000e-005
112		1.130000000000000e+002
	1.067450000000000e+000
	9.368140000000000e-001
	1.054200000000000e-005
113		1.140000000000000e+002
	1.076540000000000e+000
	9.289010000000000e-001
	1.078790000000000e-005
114		1.150000000000000e+002
	9.449570000000001e-001
	1.058250000000000e+000
	9.394730000000000e-006
115		1.160000000000000e+002
	1.023160000000000e+000
	9.773650000000000e-001
	1.025740000000000e-005
116		1.170000000000000e+002
	1.048610000000000e+000
	9.536400000000000e-001
	1.057620000000000e-005
117		1.180000000000000e+002
	1.063810000000000e+000
	9.400170000000000e-001
	1.071070000000000e-005
118		1.190000000000000e+002
	9.535320000000001e-001
	1.048730000000000e+000
	9.383740000000001e-006
119		1.200000000000000e+002
	9.344890000000000e-001
	1.070100000000000e+000
	9.348280000000000e-006
120		1.210000000000000e+002
	9.674580000000000e-001
	1.033640000000000e+000
	9.742450000000000e-006
121		1.220000000000000e+002
	1.076990000000000e+000
	9.285100000000000e-001
	1.094210000000000e-005
122		1.230000000000000e+002
	9.027640000000000e-001
	1.107710000000000e+000
	9.018489999999999e-006
123		1.240000000000000e+002
	9.253400000000001e-001
	1.080680000000000e+000
	9.181340000000001e-006
124		1.250000000000000e+002
	1.000000000000000e+000
	9.999970000000000e-001
	1.007100000000000e-005
125		1.260000000000000e+002
	1.073070000000000e+000
	9.319030000000000e-001
	1.072670000000000e-005
126		1.270000000000000e+002
	1.071670000000000e+000
	9.331260000000000e-001
	1.072840000000000e-005
127		1.280000000000000e+002
	1.071670000000000e+000
	9.331220000000000e-001
	1.065730000000000e-005
128		1.290000000000000e+002
	9.783820000000000e-001
	1.022100000000000e+000
	9.880340000000000e-006
129		1.300000000000000e+002
	9.019100000000000e-001
	1.108760000000000e+000
	9.001710000000000e-006
130		1.310000000000000e+002
	1.033000000000000e+000
	9.680550000000000e-001
	1.036780000000000e-005
131		1.320000000000000e+002
	9.219660000000000e-001
	1.084640000000000e+000
	9.037109999999999e-006
132		1.330000000000000e+002
	9.859330000000000e-001
	1.014270000000000e+000
	9.863430000000000e-006
133		1.340000000000000e+002
	9.037500000000001e-001
	1.106500000000000e+000
	9.045659999999999e-006
134		1.350000000000000e+002
	9.822250000000000e-001
	1.018100000000000e+000
	9.926850000000000e-006
135		1.360000000000000e+002
	1.011710000000000e+000
	9.884240000000000e-001
	1.021600000000000e-005
136		1.370000000000000e+002
	1.049090000000000e+000
	9.532090000000000e-001
	1.042330000000000e-005
137		1.380000000000000e+002
	1.041230000000000e+000
	9.604060000000000e-001
	1.037630000000000e-005
138		1.390000000000000e+002
	9.467820000000000e-001
	1.056210000000000e+000
	9.492870000000000e-006
139		1.400000000000000e+002
	1.033240000000000e+000
	9.678260000000000e-001
	1.024670000000000e-005
140		1.410000000000000e+002
	1.023850000000000e+000
	9.767060000000000e-001
	1.025890000000000e-005
141		1.420000000000000e+002
	9.962550000000000e-001
	1.003760000000000e+000
	9.899440000000000e-006
142		1.430000000000000e+002
	1.061220000000000e+000
	9.423160000000000e-001
	1.046100000000000e-005
143		1.440000000000000e+002
	1.028400000000000e+000
	9.723880000000000e-001
	1.011270000000000e-005
144		1.450000000000000e+002
	1.008840000000000e+000
	9.912400000000000e-001
	1.020180000000000e-005
145		1.460000000000000e+002
	1.037890000000000e+000
	9.634940000000000e-001
	1.030720000000000e-005
146		1.470000000000000e+002
	9.932800000000001e-001
	1.006770000000000e+000
	9.995090000000000e-006
147		1.480000000000000e+002
	9.794890000000001e-001
	1.020940000000000e+000
	9.751790000000000e-006
148		1.490000000000000e+002
	1.038230000000000e+000
	9.631760000000000e-001
	1.030120000000000e-005
149		1.500000000000000e+002
	9.676830000000000e-001
	1.033400000000000e+000
	9.726520000000001e-006
150		1.510000000000000e+002
	1.083370000000000e+000
	9.230450000000000e-001
	1.073890000000000e-005
151		1.520000000000000e+002
	9.203010000000000e-001
	1.086600000000000e+000
	9.329720000000000e-006
152		1.530000000000000e+002
	1.016790000000000e+000
	9.834860000000000e-001
	1.016020000000000e-005
153		1.540000000000000e+002
	1.054620000000000e+000
	9.482080000000001e-001
	1.061770000000000e-005
154		1.550000000000000e+002
	9.898320000000001e-001
	1.010270000000000e+000
	9.776509999999999e-006
155		1.560000000000000e+002
	9.680680000000000e-001
	1.032990000000000e+000
	9.763450000000001e-006
156		1.570000000000000e+002
	1.050900000000000e+000
	9.515700000000000e-001
	1.052210000000000e-005
157		1.580000000000000e+002
	9.995930000000000e-001
	1.000410000000000e+000
	9.922700000000001e-006
158		1.590000000000000e+002
	1.097940000000000e+000
	9.107950000000000e-001
	1.084410000000000e-005
159		1.600000000000000e+002
	1.049630000000000e+000
	9.527130000000000e-001
	1.049440000000000e-005
160		1.610000000000000e+002
	1.007520000000000e+000
	9.925410000000000e-001
	1.010570000000000e-005
161		1.620000000000000e+002
	1.050810000000000e+000
	9.516480000000001e-001
	1.046350000000000e-005
162		1.630000000000000e+002
	9.639980000000000e-001
	1.037350000000000e+000
	9.789880000000000e-006
163		1.640000000000000e+002
	1.057310000000000e+000
	9.457940000000000e-001
	1.051240000000000e-005
164		1.650000000000000e+002
	9.834880000000000e-001
	1.016790000000000e+000
	9.691729999999999e-006
165		1.660000000000000e+002
	9.603470000000000e-001
	1.041290000000000e+000
	9.590590000000000e-006
166		1.670000000000000e+002
	9.381930000000001e-001
	1.065880000000000e+000
	9.286020000000000e-006
167		1.680000000000000e+002
	1.059580000000000e+000
	9.437690000000000e-001
	1.062840000000000e-005
168		1.690000000000000e+002
	9.524390000000000e-001
	1.049940000000000e+000
	9.458750000000000e-006
169		1.700000000000000e+002
	9.052120000000000e-001
	1.104710000000000e+000
	9.081789999999999e-006
170		1.710000000000000e+002
	1.074570000000000e+000
	9.306010000000000e-001
	1.078890000000000e-005
171		1.720000000000000e+002
	1.093790000000000e+000
	9.142510000000000e-001
	1.099870000000000e-005
172		1.730000000000000e+002
	9.590270000000000e-001
	1.042720000000000e+000
	9.568740000000000e-006
173		1.740000000000000e+002
	1.021030000000000e+000
	9.794030000000000e-001
	1.029010000000000e-005
174		1.750000000000000e+002
	9.622980000000000e-001
	1.039180000000000e+000
	9.750140000000000e-006
175		1.760000000000000e+002
	9.789490000000000e-001
	1.021500000000000e+000
	9.897730000000001e-006
176		1.770000000000000e+002
	9.890080000000000e-001
	1.011110000000000e+000
	1.000340000000000e-005
177		1.780000000000000e+002
	1.055560000000000e+000
	9.473620000000000e-001
	1.054230000000000e-005
178		1.790000000000000e+002
	1.005650000000000e+000
	9.943850000000000e-001
	1.007790000000000e-005
179		1.800000000000000e+002
	9.673780000000000e-001
	1.033720000000000e+000
	9.742090000000000e-006
180		1.810000000000000e+002
	9.525540000000000e-001
	1.049810000000000e+000
	9.649860000000000e-006
181		1.820000000000000e+002
	1.075650000000000e+000
	9.296690000000000e-001
	1.078790000000000e-005
182		1.830000000000000e+002
	9.850200000000000e-001
	1.015210000000000e+000
	9.847319999999999e-006
183		1.840000000000000e+002
	1.045140000000000e+000
	9.568140000000001e-001
	1.036330000000000e-005
184		1.850000000000000e+002
	1.052600000000000e+000
	9.500260000000000e-001
	1.063680000000000e-005
185		1.860000000000000e+002
	1.058210000000000e+000
	9.449920000000001e-001
	1.049660000000000e-005
186		1.870000000000000e+002
	1.017260000000000e+000
	9.830300000000000e-001
	1.026190000000000e-005
187		1.880000000000000e+002
	9.510010000000000e-001
	1.051520000000000e+000
	9.531880000000000e-006
188		1.890000000000000e+002
	9.974290000000000e-001
	1.002580000000000e+000
	9.920130000000001e-006
189		1.900000000000000e+002
	9.818220000000000e-001
	1.018510000000000e+000
	9.807760000000000e-006
190		1.910000000000000e+002
	9.789360000000000e-001
	1.021520000000000e+000
	9.864350000000000e-006
191		1.920000000000000e+002
	1.079490000000000e+000
	9.263600000000000e-001
	1.073040000000000e-005
192		1.930000000000000e+002
	1.020770000000000e+000
	9.796500000000000e-001
	1.011920000000000e-005
193		1.940000000000000e+002
	1.099770000000000e+000
	9.092820000000000e-001
	1.092820000000000e-005
194		1.950000000000000e+002
	1.008410000000000e+000
	9.916610000000000e-001
	9.997160000000000e-006
195		1.960000000000000e+002
	1.020930000000000e+000
	9.794970000000000e-001
	1.017690000000000e-005
196		1.970000000000000e+002
	9.627100000000000e-001
	1.038730000000000e+000
	9.602800000000001e-006
197		1.980000000000000e+002
	1.057930000000000e+000
	9.452420000000000e-001
	1.078070000000000e-005
198		1.990000000000000e+002
	9.485880000000000e-001
	1.054200000000000e+000
	9.513870000000000e-006
199		2.000000000000000e+002
	9.045520000000000e-001
	1.105520000000000e+000
	9.098569999999999e-006
200		2.010000000000000e+002
	9.892870000000000e-001
	1.010830000000000e+000
	9.824550000000001e-006
201		2.020000000000000e+002
	1.095730000000000e+000
	9.126340000000000e-001
	1.090260000000000e-005
202		2.030000000000000e+002
	1.089890000000000e+000
	9.175270000000000e-001
	1.074020000000000e-005
203		2.040000000000000e+002
	9.232890000000000e-001
	1.083090000000000e+000
	9.255260000000000e-006
204		2.050000000000000e+002
	9.928030000000000e-001
	1.007250000000000e+000
	9.909570000000000e-006
205		2.060000000000000e+002
	1.072550000000000e+000
	9.323580000000000e-001
	1.059440000000000e-005
206		2.070000000000000e+002
	1.065360000000000e+000
	9.386480000000000e-001
	1.068430000000000e-005
207		2.080000000000000e+002
	9.732430000000000e-001
	1.027490000000000e+000
	9.712420000000000e-006
208		2.090000000000000e+002
	1.039700000000000e+000
	9.618110000000000e-001
	1.048980000000000e-005
209		2.100000000000000e+002
	9.329350000000000e-001
	1.071890000000000e+000
	9.317640000000000e-006
210		2.110000000000000e+002
	9.521960000000000e-001
	1.050200000000000e+000
	9.498430000000001e-006
211		2.120000000000000e+002
	1.094220000000000e+000
	9.138950000000000e-001
	1.086500000000000e-005
212		2.130000000000000e+002
	1.071490000000000e+000
	9.332800000000000e-001
	1.079030000000000e-005
213		2.140000000000000e+002
	1.035730000000000e+000
	9.655020000000000e-001
	1.034390000000000e-005
214		2.150000000000000e+002
	1.021480000000000e+000
	9.789750000000000e-001
	1.018960000000000e-005
215		2.160000000000000e+002
	9.752520000000000e-001
	1.025380000000000e+000
	9.710650000000000e-006
216		2.170000000000000e+002
	1.108030000000000e+000
	9.024990000000001e-001
	1.096510000000000e-005
217		2.180000000000000e+002
	9.632090000000000e-001
	1.038200000000000e+000
	9.652909999999999e-006
218		2.190000000000000e+002
	9.618949999999999e-001
	1.039610000000000e+000
	9.580340000000000e-006
219		2.200000000000000e+002
	1.049520000000000e+000
	9.528170000000000e-001
	1.037340000000000e-005
220		2.210000000000000e+002
	9.788670000000000e-001
	1.021590000000000e+000
	9.683129999999999e-006
221		2.220000000000000e+002
	1.008480000000000e+000
	9.915950000000000e-001
	1.008110000000000e-005
222		2.230000000000000e+002
	1.059800000000000e+000
	9.435760000000000e-001
	1.051990000000000e-005
223		2.240000000000000e+002
	9.796730000000000e-001
	1.020750000000000e+000
	9.876739999999999e-006
224		2.250000000000000e+002
	1.102020000000000e+000
	9.074270000000000e-001
	1.096410000000000e-005
225		2.260000000000000e+002
	1.062800000000000e+000
	9.409100000000000e-001
	1.072010000000000e-005
226		2.270000000000000e+002
	9.380420000000000e-001
	1.066050000000000e+000
	9.344920000000001e-006
227		2.280000000000000e+002
	9.180060000000000e-001
	1.089320000000000e+000
	9.167360000000000e-006
228		2.290000000000000e+002
	1.016180000000000e+000
	9.840810000000000e-001
	1.026460000000000e-005
229		2.300000000000000e+002
	9.670730000000000e-001
	1.034050000000000e+000
	9.565020000000001e-006
230		2.310000000000000e+002
	1.064640000000000e+000
	9.392880000000000e-001
	1.059080000000000e-005
231		2.320000000000000e+002
	9.421900000000000e-001
	1.061360000000000e+000
	9.388500000000000e-006
232		2.330000000000000e+002
	9.740250000000000e-001
	1.026670000000000e+000
	9.813620000000000e-006
233		2.340000000000000e+002
	9.388180000000000e-001
	1.065170000000000e+000
	9.412980000000000e-006
234		2.350000000000000e+002
	1.109160000000000e+000
	9.015830000000000e-001
	1.095210000000000e-005
235		2.360000000000000e+002
	9.337990000000001e-001
	1.070890000000000e+000
	9.403330000000001e-006
236		2.370000000000000e+002
	9.175060000000000e-001
	1.089910000000000e+000
	9.199220000000000e-006
237		2.380000000000000e+002
	8.925420000000000e-001
	1.120400000000000e+000
	9.011539999999999e-006
238		2.390000000000000e+002
	1.050930000000000e+000
	9.515370000000000e-001
	1.049380000000000e-005
239		2.400000000000000e+002
	1.049680000000000e+000
	9.526740000000000e-001
	1.056850000000000e-005
240		2.410000000000000e+002
	9.098910000000000e-001
	1.099030000000000e+000
	9.203860000000001e-006
241		2.420000000000000e+002
	9.342650000000000e-001
	1.070360000000000e+000
	9.457289999999999e-006
242		2.430000000000000e+002
	9.193980000000001e-001
	1.087670000000000e+000
	9.112310000000000e-006
243		2.440000000000000e+002
	1.079460000000000e+000
	9.263850000000000e-001
	1.075730000000000e-005
244		2.450000000000000e+002
	1.071910000000000e+000
	9.329110000000001e-001
	1.089040000000000e-005
245		2.460000000000000e+002
	9.916110000000000e-001
	1.008460000000000e+000
	9.843900000000001e-006
246		2.470000000000000e+002
	1.027450000000000e+000
	9.732810000000000e-001
	1.024630000000000e-005
247		2.480000000000000e+002
	9.654870000000000e-001
	1.035750000000000e+000
	9.633559999999999e-006
248		2.490000000000000e+002
	9.977050000000000e-001
	1.002300000000000e+000
	9.938140000000000e-006
249		2.500000000000000e+002
	1.028920000000000e+000
	9.718900000000000e-001
	1.016090000000000e-005
250		2.510000000000000e+002
	9.862090000000000e-001
	1.013980000000000e+000
	9.837180000000000e-006
251		2.520000000000000e+002
	9.115780000000000e-001
	1.097000000000000e+000
	9.174690000000000e-006
252		2.530000000000000e+002
	1.012800000000000e+000
	9.873640000000000e-001
	1.022900000000000e-005
253		2.540000000000000e+002
	9.359680000000000e-001
	1.068410000000000e+000
	9.441909999999999e-006
254		2.550000000000000e+002
	1.065800000000000e+000
	9.382620000000000e-001
	1.054110000000000e-005
255		2.560000000000000e+002
	9.444390000000000e-001
	1.058830000000000e+000
	9.445330000000000e-006
256		2.570000000000000e+002
	1.068720000000000e+000
	9.356950000000001e-001
	1.068320000000000e-005
257		2.580000000000000e+002
	9.163640000000000e-001
	1.091270000000000e+000
	9.163460000000000e-006
258		2.590000000000000e+002
	9.262780000000001e-001
	1.079590000000000e+000
	9.188790000000000e-006
259		2.600000000000000e+002
	9.590220000000000e-001
	1.042730000000000e+000
	9.620620000000000e-006
260		2.610000000000000e+002
	9.392780000000000e-001
	1.064650000000000e+000
	9.344920000000001e-006
261		2.620000000000000e+002
	9.900340000000000e-001
	1.010070000000000e+000
	9.892910000000001e-006
262		2.630000000000000e+002
	9.547340000000000e-001
	1.047410000000000e+000
	9.497210000000000e-006
263		2.640000000000000e+002
	1.024160000000000e+000
	9.764120000000000e-001
	1.025980000000000e-005
264		2.650000000000000e+002
	1.087160000000000e+000
	9.198320000000000e-001
	1.071890000000000e-005
265		2.660000000000000e+002
	9.192180000000000e-001
	1.087880000000000e+000
	9.187080000000001e-006
266		2.670000000000000e+002
	9.846760000000000e-001
	1.015560000000000e+000
	1.003020000000000e-005
267		2.680000000000000e+002
	1.081170000000000e+000
	9.249240000000000e-001
	1.082960000000000e-005
268		2.690000000000000e+002
	1.028820000000000e+000
	9.719910000000001e-001
	1.035590000000000e-005
269		2.700000000000000e+002
	1.068900000000000e+000
	9.355380000000000e-001
	1.074090000000000e-005
270		2.710000000000000e+002
	9.498580000000000e-001
	1.052790000000000e+000
	9.409250000000000e-006
271		2.720000000000000e+002
	1.052340000000000e+000
	9.502630000000000e-001
	1.047760000000000e-005
272		2.730000000000000e+002
	1.079900000000000e+000
	9.260140000000000e-001
	1.068870000000000e-005
273		2.740000000000000e+002
	1.077420000000000e+000
	9.281410000000000e-001
	1.078550000000000e-005
274		2.750000000000000e+002
	1.068630000000000e+000
	9.357760000000001e-001
	1.077510000000000e-005
275		2.760000000000000e+002
	1.006490000000000e+000
	9.935540000000001e-001
	1.005570000000000e-005
276		2.770000000000000e+002
	1.024510000000000e+000
	9.760730000000000e-001
	1.011810000000000e-005
277		2.780000000000000e+002
	9.634610000000000e-001
	1.037920000000000e+000
	9.736960000000001e-006
278		2.790000000000000e+002
	9.436730000000000e-001
	1.059690000000000e+000
	9.497630000000001e-006
279		2.800000000000000e+002
	9.447830000000000e-001
	1.058440000000000e+000
	9.393690000000001e-006
280		2.810000000000000e+002
	9.287250000000000e-001
	1.076740000000000e+000
	9.348890000000001e-006
281		2.820000000000000e+002
	9.056920000000001e-001
	1.104130000000000e+000
	9.094610000000000e-006
282		2.830000000000000e+002
	1.014760000000000e+000
	9.854540000000001e-001
	1.013790000000000e-005
283		2.840000000000000e+002
	9.707640000000000e-001
	1.030120000000000e+000
	9.822530000000000e-006
284		2.850000000000000e+002
	1.106400000000000e+000
	9.038360000000000e-001
	1.097590000000000e-005
285		2.860000000000000e+002
	9.543090000000000e-001
	1.047880000000000e+000
	9.589500000000000e-006
286		2.870000000000000e+002
	1.072910000000000e+000